                  Welcome to Q-Chem
     A Quantum Leap Into The Future Of Chemistry


 Q-Chem 5.2 (devel), Q-Chem, Inc., Pleasanton, CA (2019)

 Yihan Shao,  Zhengting Gan,  E. Epifanovsky,  A. T. B. Gilbert,  M. Wormit,  
 J. Kussmann,  A. W. Lange,  A. Behn,  Jia Deng,  Xintian Feng,  D. Ghosh,  
 M. Goldey,  P. R. Horn,  L. D. Jacobson,  I. Kaliman,  T. Kus,  A. Landau,  
 Jie Liu,  E. I. Proynov,  R. M. Richard,  R. P. Steele,  E. J. Sundstrom,  
 H. L. Woodcock III,  P. M. Zimmerman,  D. Zuev,  B. Albrecht,  E. Alguire,  
 S. A. Baeppler,  D. Barton,  Z. Benda,  Y. A. Bernard,  E. J. Berquist,  
 K. B. Bravaya,  H. Burton,  D. Casanova,  Chun-Min Chang,  Yunqing Chen,  
 A. Chien,  K. D. Closser,  M. P. Coons,  S. Coriani,  S. Dasgupta,  
 A. L. Dempwolff,  M. Diedenhofen,  Hainam Do,  R. G. Edgar,  Po-Tung Fang,  
 S. Faraji,  S. Fatehi,  Qingguo Feng,  K. D. Fenk,  J. Fosso-Tande,  
 J. Gayvert,  Qinghui Ge,  A. Ghysels,  G. Gidofalvi,  J. Gomes,  
 J. Gonthier,  A. Gunina,  D. Hait,  M. W. D. Hanson-Heine,  
 P. H. P. Harbach,  A. W. Hauser,  M. F. Herbst,  J. E. Herr,  
 E. G. Hohenstein,  Z. C. Holden,  Kerwin Hui,  B. C. Huynh,  T.-C. Jagau,  
 Hyunjun Ji,  B. Kaduk,  K. Khistyaev,  Jaehoon Kim,  P. Klunzinger,  K. Koh,  
 D. Kosenkov,  L. Koulias,  T. Kowalczyk,  C. M. Krauter,  A. Kunitsa,  
 Ka Un Lao,  A. Laurent,  K. V. Lawler,  Joonho Lee,  D. Lefrancois,  
 S. Lehtola,  D. S. Levine,  Yi-Pei Li,  You-Sheng Lin,  Fenglai Liu,  
 E. Livshits,  A. Luenser,  P. Manohar,  E. Mansoor,  S. F. Manzer,  
 Shan-Ping Mao,  Yuezhi Mao,  N. Mardirossian,  A. V. Marenich,  
 T. Markovich,  L. A. Martinez-Martinez,  S. A. Maurer,  N. J. Mayhall,  
 S. C. McKenzie,  J.-M. Mewes,  P. Morgante,  A. F. Morrison,  
 J. W. Mullinax,  K. Nanda,  T. S. Nguyen-Beck,  R. Olivares-Amaya,  
 J. A. Parkhill,  Zheng Pei,  T. M. Perrine,  F. Plasser,  P. Pokhilko,  
 S. Prager,  A. Prociuk,  E. Ramos,  D. R. Rehn,  F. Rob,  M. Scheurer,  
 M. Schneider,  N. Sergueev,  S. M. Sharada,  S. Sharma,  D. W. Small,  
 T. Stauch,  T. Stein,  Yu-Chuan Su,  A. J. W. Thom,  A. Tkatchenko,  
 T. Tsuchimochi,  N. M. Tubman,  L. Vogt,  M. L. Vidal,  O. Vydrov,  
 M. A. Watson,  J. Wenzel,  M. de Wergifosse,  T. A. Wesolowski,  A. White,  
 J. Witte,  A. Yamada,  Jun Yang,  K. Yao,  S. Yeganeh,  S. R. Yost,  
 Zhi-Qiang You,  A. Zech,  Igor Ying Zhang,  Xing Zhang,  Yan Zhao,  
 Ying Zhu,  B. R. Brooks,  G. K. L. Chan,  C. J. Cramer,  M. S. Gordon,  
 W. J. Hehre,  A. Klamt,  M. W. Schmidt,  C. D. Sherrill,  D. G. Truhlar,  
 A. Aspuru-Guzik,  R. Baer,  A. T. Bell,  N. A. Besley,  Jeng-Da Chai,  
 A. E. DePrince, III,  R. A. DiStasio Jr.,  A. Dreuw,  B. D. Dunietz,  
 T. R. Furlani,  Chao-Ping Hsu,  Yousung Jung,  Jing Kong,  D. S. Lambrecht,  
 WanZhen Liang,  C. Ochsenfeld,  V. A. Rassolov,  L. V. Slipchenko,  
 J. E. Subotnik,  T. Van Voorhis,  J. M. Herbert,  A. I. Krylov,  
 P. M. W. Gill,  M. Head-Gordon

 Contributors to earlier versions of Q-Chem not listed above: 
 R. D. Adamson,  B. Austin,  J. Baker,  G. J. O. Beran,  K. Brandhorst,  
 S. T. Brown,  E. F. C. Byrd,  A. K. Chakraborty,  C.-L. Cheng,  
 Siu Hung Chien,  D. M. Chipman,  D. L. Crittenden,  H. Dachsel,  
 R. J. Doerksen,  A. D. Dutoi,  L. Fusti-Molnar,  W. A. Goddard III,  
 A. Golubeva-Zadorozhnaya,  S. R. Gwaltney,  G. Hawkins,  A. Heyden,  
 S. Hirata,  G. Kedziora,  F. J. Keil,  C. Kelley,  Jihan Kim,  R. A. King,  
 R. Z. Khaliullin,  P. P. Korambath,  W. Kurlancheek,  A. M. Lee,  M. S. Lee,  
 S. V. Levchenko,  Ching Yeh Lin,  D. Liotard,  R. C. Lochan,  I. Lotan,  
 P. E. Maslen,  N. Nair,  D. P. O'Neill,  D. Neuhauser,  E. Neuscamman,  
 C. M. Oana,  R. Olson,  B. Peters,  R. Peverati,  P. A. Pieniazek,  
 Y. M. Rhee,  J. Ritchie,  M. A. Rohrdanz,  E. Rosta,  N. J. Russ,  
 H. F. Schaefer III,  N. E. Schultz,  N. Shenvi,  A. C. Simmonett,  A. Sodt,  
 D. Stuck,  K. S. Thanthiriwatte,  V. Vanovschi,  Tao Wang,  A. Warshel,  
 C. F. Williams,  Q. Wu,  X. Xu,  W. Zhang

 Please cite Q-Chem as follows:
 Y. Shao et al., Mol. Phys. 113, 184-215 (2015)
 DOI: 10.1080/00268976.2014.952696

 Q-Chem 5.2.0 for Intel X86 EM64T Linux

 Parts of Q-Chem use Armadillo 8.300.2 (Tropical Shenanigans).
 http://arma.sourceforge.net/

 Q-Chem begins on Wed May 24 11:43:26 2023  

Host: 
0

     Scratch files written to /lscratch/ccprak10/geo100_505476.Meister/qchem27842//
NAlpha2: 96
NElect   96
Mult     1

Checking the input file for inconsistencies... 	...done.

--------------------------------------------------------------
User input:
--------------------------------------------------------------
$molecule
0 1
C      -2.96180822     -0.25712040      1.42623170
C      -1.88351694     -1.13291535      1.28169409
C      -1.08592209     -1.08715017      0.13884753
C      -1.38711861     -0.12401224     -0.83336856
C      -2.44127071      0.77616995     -0.69624461
C      -3.24011452      0.69587721      0.44177384
H      -3.59587975     -0.31817375      2.31605900
H      -1.70726755     -1.94548558      2.03698825
H      -0.27028527     -1.78967641      0.01364881
H      -2.64714319      1.49519921     -1.48568451
H      -4.08847763      1.37623427      0.56368621
C       1.89859822      1.15852700      1.25743720
C       2.87399488      0.18744164      1.45925147
C       3.23212568     -0.70494945      0.44869228
C       2.48327168     -0.73126175     -0.70871418
C       1.39618641      0.11880420     -0.87201498
C       1.12937847      1.10827533      0.08495553
H       1.70304273      1.91454724      2.02626612
H       3.77529798      0.31230076      2.37686113
H       4.07191034     -1.39663073      0.60813550
H       2.74840782     -1.43689099     -1.48900909
H       0.33716687      1.83260934     -0.06679534
N      -0.61645913     -0.04414272     -2.06016289
N       0.58116048      0.03403919     -2.07094830
$end 


!QSYS wt = 12h
$rem
method camb3lyp
basis 6-311G*
dft_d d3_bj
cis_n_roots 20
cis_singlets true
cis_triplets false
mem_total 80000
threads 8
sts_mom true
$end
--------------------------------------------------------------
 Adding empirical dispersion correction 
 ----------------------------------------------------------------
 Doing -D3(BJ) with
 s6 =   1.00000
 s8 =   2.06740
 a1 =   0.37080
 a2 =   5.47430
 -D3 energy without 3body term =     -0.0254997449 hartrees
 ----------------------------------------------------------------
             Standard Nuclear Orientation (Angstroms)
    I     Atom           X                Y                Z
 ----------------------------------------------------------------
    1      C      -2.9587035834    -1.4444991270    -0.2922135944
    2      C      -1.8632582792    -1.3145683422    -1.1487984275
    3      C      -1.0660425485    -0.1713442382    -1.1059500561
    4      C      -1.3856039952     0.8165438779    -0.1649316219
    5      C      -2.4573915418     0.6944172229     0.7163879216
    6      C      -3.2551719404    -0.4445426056     0.6389199019
    7      H      -3.5919758784    -2.3350317198    -0.3512452994
    8      H      -1.6714612029    -2.0830719704    -1.9453030096
    9      H      -0.2366303754    -0.0578503111    -1.7941911731
   10      H      -2.6769402161     1.4955434051     1.4182405630
   11      H      -4.1168647090    -0.5551035391     1.3042996235
   12      C       1.8729276279    -1.2539452032     1.2161394630
   13      C       2.8671724809    -1.4718473943     0.2679146860
   14      C       3.2434396471    -0.4760852348    -0.6336007854
   15      C       2.4959384204     0.6809414286    -0.6935639428
   16      C       1.3923913690     0.8583905043     0.1321051106
   17      C       1.1055458667    -0.0822305134     1.1315969364
   18      H       1.6620381525    -2.0102792938     1.9805940619
   19      H       3.7652914208    -2.3875423065     0.4254893150
   20      H       4.0966118519    -0.6470248940    -1.3058806606
   21      H       2.7754076622     1.4495434812    -1.4064578840
   22      H       0.2992886914     0.0815378016     1.8375832040
   23      N      -0.6159413315     2.0442685233    -0.0898910893
   24      N       0.5799089689     2.0560024905     0.0117250481
 ----------------------------------------------------------------
 Molecular Point Group                 C1    NOp =  1
 Largest Abelian Subgroup              C1    NOp =  1
 Nuclear Repulsion Energy =         798.90329809 hartrees
 There are       48 alpha and       48 beta electrons
 Requested basis set is 6-311G(d)
 There are 100 shells and 282 basis functions

 Total QAlloc Memory Limit  80000 MB
 Mega-Array Size       188 MB
 MEM_STATIC part       192 MB
 A cutoff of  1.0D-11 yielded   3947 shell pairs
 There are     33114 function pairs (     36399 Cartesian)
 Smallest overlap matrix eigenvalue = 2.05E-04

 Scale SEOQF with 1.000000e-01/1.000000e-01/1.000000e-01

 Standard Electronic Orientation quadrupole field applied
 Nucleus-field energy     =     0.0000000200 hartrees
 Guess from superposition of atomic densities
 Warning:  Energy on first SCF cycle will be non-variational
 SAD guess density has 96.000000 electrons

 -----------------------------------------------------------------------
  General SCF calculation program by
  Eric Jon Sundstrom, Paul Horn, Yuezhi Mao, Dmitri Zuev, Alec White,
  David Stuck, Shaama M.S., Shane Yost, Joonho Lee, David Small,
  Daniel Levine, Susi Lehtola, Hugh Burton, Evgeny Epifanovsky
 -----------------------------------------------------------------------
 Exchange:     0.1900 Hartree-Fock + 0.3500 B88 + 0.4600 muB88 + LR-HF
 Correlation:  0.1900 VWN5 + 0.8100 LYP
 Using SG-1 standard quadrature grid
 Dispersion:   Grimme D3
 using 8 threads for integral computing
 -------------------------------------------------------
 OpenMP Integral computing Module                
 Release: version 1.0, May 2013, Q-Chem Inc. Pittsburgh 
 -------------------------------------------------------
 using 8 threads for integral computing
 -------------------------------------------------------
 OpenMP Integral computing Module                
 Release: version 1.0, May 2013, Q-Chem Inc. Pittsburgh 
 -------------------------------------------------------
 A restricted SCF calculation will be
 performed using DIIS
 SCF converges when DIIS error is below 1.0e-08
 ---------------------------------------
  Cycle       Energy         DIIS error
 ---------------------------------------
    1    -576.6898928418      4.50e-02  
    2    -572.4054107337      3.42e-03  
    3    -572.4396559618      3.01e-03  
    4    -572.5263714014      5.72e-04  
    5    -572.5292822593      2.44e-04  
    6    -572.5298950499      7.31e-05  
    7    -572.5299443248      2.22e-05  
    8    -572.5299492242      3.21e-06  
    9    -572.5299494311      2.49e-06  
   10    -572.5299495021      6.99e-07  
   11    -572.5299495091      3.43e-07  
   12    -572.5299495106      1.32e-07  
   13    -572.5299495109      4.32e-08  
   14    -572.5299495109      2.05e-08  
   15    -572.5299495109      7.90e-09  Convergence criterion met
 ---------------------------------------
 SCF time:   CPU 284.27s  wall 35.00s 
 SCF   energy in the final basis set =     -572.5299495109
 Total energy in the final basis set =     -572.5299495109
 
 Direct TDDFT/TDA calculation will be performed
 Exchange:     0.1900 Hartree-Fock + 0.3500 B88 + 0.4600 muB88 + LR-HF
 Correlation:  0.1900 VWN5 + 0.8100 LYP
 Using SG-1 standard quadrature grid
 Dispersion:   Grimme D3
 Singlet excitation energies requested
 CIS energy converged when residual is below 10e- 6
 ---------------------------------------------------
 Iter    Rts Conv    Rts Left    Ttl Dev     Max Dev
 ---------------------------------------------------
   1         0          20      0.012821    0.001551
   2         0          20      0.003605    0.000261
   3         0          20      0.001717    0.000201
   4         0          20      0.000718    0.000108
   5         1          19      0.000290    0.000052
   6         5          15      0.000147    0.000037
   7        12           8      0.000066    0.000020
   8        14           6      0.000030    0.000010
   9        17           3      0.000015    0.000004
  10        19           1      0.000009    0.000001
  11        20           0      0.000008    0.000001    Roots Converged
 ---------------------------------------------------
 
 ---------------------------------------------------
         TDDFT/TDA Excitation Energies              
 ---------------------------------------------------

 Excited state   1: excitation energy (eV) =    2.8482
 Total energy for state  1:                  -572.42527826 au
    Multiplicity: Singlet
    Trans. Mom.:  0.4646 X  -0.0259 Y   0.2735 Z
    Strength   :     0.0203322221
    D( 45) --> V(  1) amplitude =  0.2207
    D( 47) --> V(  1) amplitude =  0.2237
    D( 48) --> V(  1) amplitude =  0.8973
    D( 48) --> V(  5) amplitude =  0.2158

 Excited state   2: excitation energy (eV) =    4.8474
 Total energy for state  2:                  -572.35181251 au
    Multiplicity: Singlet
    Trans. Mom.: -0.7832 X  -0.0058 Y  -0.0116 Z
    Strength   :     0.0728627263
    D( 47) --> V(  1) amplitude =  0.6613
    D( 48) --> V(  1) amplitude = -0.2457
    D( 48) --> V(  2) amplitude = -0.6197

 Excited state   3: excitation energy (eV) =    5.0677
 Total energy for state  3:                  -572.34371539 au
    Multiplicity: Singlet
    Trans. Mom.: -0.4293 X   0.2404 Y  -0.1498 Z
    Strength   :     0.0328440752
    D( 44) --> V(  1) amplitude =  0.3155
    D( 45) --> V(  1) amplitude =  0.3397
    D( 47) --> V(  1) amplitude =  0.2475
    D( 48) --> V(  2) amplitude =  0.2596
    D( 48) --> V(  3) amplitude =  0.6739

 Excited state   4: excitation energy (eV) =    5.1018
 Total energy for state  4:                  -572.34246067 au
    Multiplicity: Singlet
    Trans. Mom.: -0.6449 X  -0.1756 Y  -0.2443 Z
    Strength   :     0.0632906849
    D( 44) --> V(  1) amplitude = -0.2435
    D( 45) --> V(  1) amplitude =  0.3776
    D( 46) --> V(  1) amplitude =  0.2780
    D( 47) --> V(  1) amplitude =  0.4027
    D( 48) --> V(  2) amplitude =  0.4915
    D( 48) --> V(  3) amplitude = -0.3408

 Excited state   5: excitation energy (eV) =    5.2587
 Total energy for state  5:                  -572.33669672 au
    Multiplicity: Singlet
    Trans. Mom.:  0.1331 X  -0.0845 Y   0.0899 Z
    Strength   :     0.0042419212
    D( 45) --> V(  1) amplitude = -0.2462
    D( 46) --> V(  1) amplitude =  0.7213
    D( 48) --> V(  3) amplitude =  0.3161
    D( 48) --> V(  4) amplitude = -0.3765

 Excited state   6: excitation energy (eV) =    5.4789
 Total energy for state  6:                  -572.32860192 au
    Multiplicity: Singlet
    Trans. Mom.:  0.0641 X  -0.7799 Y   0.0356 Z
    Strength   :     0.0823677839
    D( 44) --> V(  1) amplitude =  0.3809
    D( 45) --> V(  3) amplitude = -0.2342
    D( 46) --> V(  1) amplitude =  0.3813
    D( 48) --> V(  3) amplitude = -0.4025
    D( 48) --> V(  4) amplitude =  0.5865

 Excited state   7: excitation energy (eV) =    5.5600
 Total energy for state  7:                  -572.32562277 au
    Multiplicity: Singlet
    Trans. Mom.: -0.9581 X   0.0500 Y   0.3968 Z
    Strength   :     0.1468437916
    D( 45) --> V(  1) amplitude =  0.5250
    D( 45) --> V(  2) amplitude = -0.2400
    D( 47) --> V(  1) amplitude = -0.3966
    D( 47) --> V(  2) amplitude = -0.2918
    D( 48) --> V(  2) amplitude = -0.4552
    D( 48) --> V(  5) amplitude =  0.2491

 Excited state   8: excitation energy (eV) =    5.8253
 Total energy for state  8:                  -572.31587531 au
    Multiplicity: Singlet
    Trans. Mom.: -0.1540 X  -0.2616 Y   0.0609 Z
    Strength   :     0.0136847004
    D( 44) --> V(  1) amplitude =  0.5975
    D( 47) --> V(  4) amplitude = -0.2184
    D( 48) --> V(  3) amplitude = -0.2889
    D( 48) --> V(  4) amplitude = -0.5588

 Excited state   9: excitation energy (eV) =    5.9134
 Total energy for state  9:                  -572.31263440 au
    Multiplicity: Singlet
    Trans. Mom.: -0.0934 X   0.0242 Y  -0.1059 Z
    Strength   :     0.0029722176
    D( 45) --> V(  1) amplitude = -0.3704
    D( 48) --> V(  5) amplitude =  0.7673
    D( 48) --> V(  6) amplitude =  0.3570

 Excited state  10: excitation energy (eV) =    6.2688
 Total energy for state 10:                  -572.29957522 au
    Multiplicity: Singlet
    Trans. Mom.: -0.3881 X   0.1753 Y   0.3267 Z
    Strength   :     0.0442468384
    D( 44) --> V(  1) amplitude = -0.2181
    D( 44) --> V(  4) amplitude = -0.2258
    D( 45) --> V(  1) amplitude =  0.3086
    D( 45) --> V(  2) amplitude =  0.2744
    D( 46) --> V(  1) amplitude =  0.2310
    D( 46) --> V(  3) amplitude = -0.4513
    D( 47) --> V(  1) amplitude = -0.2375
    D( 47) --> V(  2) amplitude =  0.4658

 Excited state  11: excitation energy (eV) =    6.3749
 Total energy for state 11:                  -572.29567458 au
    Multiplicity: Singlet
    Trans. Mom.: -0.1517 X  -0.2277 Y   0.0907 Z
    Strength   :     0.0129788655
    D( 44) --> V(  1) amplitude =  0.3473
    D( 45) --> V(  1) amplitude =  0.2291
    D( 45) --> V(  3) amplitude =  0.3237
    D( 46) --> V(  2) amplitude = -0.3307
    D( 47) --> V(  3) amplitude = -0.4090
    D( 47) --> V(  4) amplitude =  0.4170

 Excited state  12: excitation energy (eV) =    6.5281
 Total energy for state 12:                  -572.29004458 au
    Multiplicity: Singlet
    Trans. Mom.: -0.0480 X   0.0008 Y   0.0000 Z
    Strength   :     0.0003692141
    D( 44) --> V(  2) amplitude = -0.2738
    D( 45) --> V(  3) amplitude =  0.4585
    D( 45) --> V(  4) amplitude = -0.2497
    D( 46) --> V(  2) amplitude =  0.2260
    D( 47) --> V(  3) amplitude =  0.6462

 Excited state  13: excitation energy (eV) =    6.7116
 Total energy for state 13:                  -572.28330354 au
    Multiplicity: Singlet
    Trans. Mom.:  0.1025 X  -0.0277 Y   0.0333 Z
    Strength   :     0.0020347228
    D( 48) --> V(  5) amplitude = -0.3619
    D( 48) --> V(  6) amplitude =  0.7696

 Excited state  14: excitation energy (eV) =    6.7161
 Total energy for state 14:                  -572.28313919 au
    Multiplicity: Singlet
    Trans. Mom.: -1.1130 X  -0.0245 Y  -0.0886 Z
    Strength   :     0.2052322037
    D( 44) --> V(  3) amplitude = -0.3714
    D( 45) --> V(  2) amplitude = -0.4045
    D( 46) --> V(  4) amplitude =  0.3543
    D( 47) --> V(  2) amplitude =  0.5508

 Excited state  15: excitation energy (eV) =    6.9938
 Total energy for state 15:                  -572.27293244 au
    Multiplicity: Singlet
    Trans. Mom.: -1.2537 X   0.0127 Y   0.0754 Z
    Strength   :     0.2702997152
    D( 44) --> V(  3) amplitude =  0.3177
    D( 45) --> V(  2) amplitude =  0.3265
    D( 46) --> V(  3) amplitude =  0.6537
    D( 47) --> V(  2) amplitude =  0.4724

 Excited state  16: excitation energy (eV) =    7.1159
 Total energy for state 16:                  -572.26844442 au
    Multiplicity: Singlet
    Trans. Mom.:  0.1060 X  -0.1493 Y   0.0149 Z
    Strength   :     0.0058845186
    D( 46) --> V(  2) amplitude = -0.2205
    D( 47) --> V(  4) amplitude = -0.2575
    D( 48) --> V(  7) amplitude =  0.7532

 Excited state  17: excitation energy (eV) =    7.2019
 Total energy for state 17:                  -572.26528524 au
    Multiplicity: Singlet
    Trans. Mom.:  0.0764 X  -0.3738 Y   0.0072 Z
    Strength   :     0.0256971489
    D( 44) --> V(  2) amplitude =  0.6873
    D( 45) --> V(  4) amplitude =  0.3018
    D( 46) --> V(  5) amplitude =  0.2319
    D( 47) --> V(  3) amplitude =  0.3083
    D( 47) --> V(  4) amplitude =  0.2734

 Excited state  18: excitation energy (eV) =    7.2400
 Total energy for state 18:                  -572.26388336 au
    Multiplicity: Singlet
    Trans. Mom.:  0.1136 X   0.6191 Y  -0.0018 Z
    Strength   :     0.0702840304
    D( 46) --> V(  2) amplitude =  0.6292
    D( 47) --> V(  3) amplitude = -0.3009
    D( 47) --> V(  4) amplitude =  0.2842
    D( 48) --> V(  7) amplitude =  0.3272

 Excited state  19: excitation energy (eV) =    7.3238
 Total energy for state 19:                  -572.26080376 au
    Multiplicity: Singlet
    Trans. Mom.:  0.1487 X   0.0868 Y   0.1448 Z
    Strength   :     0.0090795072
    D( 44) --> V(  3) amplitude = -0.2397
    D( 45) --> V(  2) amplitude =  0.4944
    D( 45) --> V(  3) amplitude = -0.3627
    D( 46) --> V(  4) amplitude =  0.3703
    D( 47) --> V(  4) amplitude =  0.2789

 Excited state  20: excitation energy (eV) =    7.3702 
 Total energy for state  20:                  -572.25909997 au 
 Multiplicity: Singlet
    Trans. Mom.:  0.2357 X  -0.2812 Y   0.1826 Z
    Strength   :     0.0303278245
    D( 44) --> V(  3) amplitude = -0.2772
    D( 45) --> V(  2) amplitude =  0.2954
    D( 45) --> V(  3) amplitude =  0.3744
    D( 46) --> V(  2) amplitude =  0.2558
    D( 46) --> V(  4) amplitude =  0.4300
    D( 47) --> V(  4) amplitude = -0.3250
 
 ---------------------------------------------------
  SETman timing summary (seconds)
  CPU time               745.19s
  System time              0.00s
  Wall time               93.30s

                    STATE-TO-STATE TRANSITION MOMENTS


    Electron Dipole Moments of Ground State
 -----------------------------------------------------
   State     X           Y           Z(a.u.) 
 -----------------------------------------------------
       0     0.023125    1.220081   -0.039920
 -----------------------------------------------------

 Within CIS/TDA Excited States:

    Electron Dipole Moments of Singlet Excited State
 -----------------------------------------------------
   State     X           Y           Z(a.u.) 
 -----------------------------------------------------
       1    -0.033055    0.781112   -0.033216
       2     0.130656    1.211428   -0.001659
       3     1.568022    0.316322    0.337151
       4    -0.830383    1.220367   -0.321147
       5    -0.417353    1.747526   -0.106911
       6     0.371282    0.115298    0.015945
       7    -0.368648    0.634484   -0.037187
       8    -0.072077    0.169832   -0.014564
       9    -0.410866   -0.708402   -0.076796
      10     1.477917    1.996722    0.194694
      11    -1.106316    1.855045   -0.269824
      12     0.213768    0.801908    0.026145
      13     1.884436   -1.373109    0.146256
      14     0.222870    0.989285   -0.001034
      15     0.592121    0.463723    0.038921
      16    -0.365261   -1.304709   -0.262864
      17    -0.539570    0.457420   -0.014726
      18     1.847056    0.460262    0.176855
      19    -2.084730    0.852665   -0.197847
      20     2.897790    1.108435    0.283880
 -----------------------------------------------------

                Transition Moments Between Ground and Singlet Excited States
 --------------------------------------------------------------------------------
    States   X          Y          Z           Strength(a.u.)
 --------------------------------------------------------------------------------
    0    1   0.464649  -0.025854   0.273506     0.02033222
    0    2  -0.783180  -0.005761  -0.011650     0.07286273
    0    3  -0.429301   0.240437  -0.149766     0.03284408
    0    4  -0.644854  -0.175565  -0.244327     0.06329068
    0    5   0.133058  -0.084502   0.089889    0.004241921
    0    6   0.064126  -0.779902   0.035565     0.08236778
    0    7  -0.958134   0.050009   0.396844      0.1468438
    0    8  -0.154040  -0.261620   0.060944      0.0136847
    0    9  -0.093391   0.024230  -0.105861    0.002972218
    0   10  -0.388094   0.175329   0.326711     0.04424684
    0   11  -0.151719  -0.227717   0.090699     0.01297887
    0   12  -0.048040   0.000821   0.000038   0.0003692141
    0   13   0.102469  -0.027692   0.033280    0.002034723
    0   14  -1.113041  -0.024525  -0.088572      0.2052322
    0   15  -1.253666   0.012734   0.075360      0.2702997
    0   16   0.106003  -0.149314   0.014919    0.005884519
    0   17   0.076357  -0.373841   0.007231     0.02569715
    0   18   0.113638   0.619131  -0.001834     0.07028403
    0   19   0.148679   0.086835   0.144763    0.009079507
    0   20   0.235682  -0.281212   0.182574     0.03032782
 --------------------------------------------------------------------------------

                Transition Moments Between Singlet Excited States
 --------------------------------------------------------------------------------
    States   X          Y          Z           Strength(a.u.)
 --------------------------------------------------------------------------------
    1    2  -0.052718  -0.353289   0.010406    0.006254411
    1    3  -0.589360  -0.272872  -0.304247     0.02796904
    1    4  -0.024210  -0.506022   0.195783      0.0162861
    1    5  -1.815920   0.229992  -0.080686      0.1982438
    1    6   0.225549  -0.079153  -0.099253      0.0043175
    1    7   0.224659   0.307612  -0.002856    0.009640328
    1    8  -0.570410   0.330139   0.005099     0.03168206
    1    9   0.125952   1.473342  -0.020888      0.1642376
    1   10   0.013060   0.045627   0.089582   0.0008612597
    1   11   0.102546   0.025464  -0.203386    0.004538721
    1   12   0.031770  -0.012058  -0.091588   0.0008603647
    1   13   0.062480   0.123629  -0.007681    0.001821707
    1   14  -0.016264   0.133201   0.002185    0.001706793
    1   15   0.007336  -0.038385  -0.000240   0.0001551199
    1   16  -0.104027   0.017473   0.024910    0.001228267
    1   17  -0.040964  -0.015797  -0.030877   0.0003072899
    1   18   0.152673   0.034672   0.031743    0.002745746
    1   19   0.049194   0.055538   0.017075   0.0006355369
    1   20  -0.114176  -0.030429  -0.022508    0.001602915
    2    3  -0.172941   0.851415   0.025815    0.004078153
    2    4   0.456675   1.353463  -0.026008     0.01272529
    2    5   0.684400  -0.373648   0.036615    0.006140609
    2    6   0.024349   0.065839   0.190540   0.0006380322
    2    7  -0.190510  -1.685454   0.026293     0.05024488
    2    8   2.627001  -0.157703   0.391658      0.1696093
    2    9  -0.590107   0.047160  -0.069795    0.009280561
    2   10  -0.268072  -0.143910  -0.061511    0.003355603
    2   11   0.620438  -0.042122   0.186711     0.01577771
    2   12   0.147962   0.024530  -0.183840    0.002318015
    2   13  -0.058291   0.010295  -0.063495   0.0003441613
    2   14   0.059654   0.223570   0.005897    0.002452867
    2   15  -0.108170   0.394865   0.010533    0.008820389
    2   16  -0.484074  -0.040251   0.089025     0.01355416
    2   17   0.397520   0.015495   0.199111     0.01141627
    2   18   1.251176  -0.186751  -0.005906     0.09381172
    2   19   0.401089   0.073506  -0.088961     0.01056854
    2   20  -0.808252   0.170118   0.080040     0.04256232
    3    4   0.962945   0.813203   0.174331    0.001354225
    3    5   0.599194  -0.576181   0.004034    0.003233428
    3    6   0.370317   0.836329   0.016218    0.008431748
    3    7  -1.060484   0.461255  -0.163180     0.01645236
    3    8  -0.208588   1.362471   0.029542     0.03527726
    3    9   1.485199  -0.833472   0.148850     0.06055917
    3   10  -0.106171  -0.433377  -0.081114    0.006052121
    3   11   0.830777   0.015256   0.060350     0.02222898
    3   12  -0.361948  -0.582781  -0.028186     0.01686818
    3   13   0.146558   0.159151   0.025509    0.001911385
    3   14   0.246252   0.064097   0.197091    0.004183535
    3   15  -1.046514  -0.106900  -0.120129     0.05290083
    3   16  -0.077301   0.105570  -0.125371    0.001647853
    3   17  -0.364837  -0.315283  -0.207240     0.01440283
    3   18   0.273307  -0.127385  -0.034997    0.004904274
    3   19   0.525130  -0.073236   0.059923     0.01573751
    3   20  -0.294608  -0.086150   0.069485    0.005587077
    4    5   1.608958   0.401168   0.140790      0.0106422
    4    6   0.824095  -0.115277   0.051376    0.006421792
    4    7   1.055768   0.969165   0.038737     0.02307271
    4    8  -0.771028  -1.159621   0.104875     0.03456459
    4    9  -0.760863  -0.766498  -0.104751     0.02341173
    4   10  -0.206156  -0.477705   0.021870    0.007753145
    4   11   1.207883  -0.368114   0.145432     0.05039296
    4   12  -0.529664   0.153772  -0.015951      0.0106385
    4   13   0.092948   0.228062   0.069642    0.002583261
    4   14  -0.028001   0.199825  -0.174456    0.002813764
    4   15   0.365020  -0.286204   0.019264    0.009989959
    4   16  -0.052724  -0.022371   0.015152   0.0001731913
    4   17  -0.693348   0.303131  -0.313673     0.03452372
    4   18   0.312367   0.028123   0.018881    0.005171452
    4   19   0.638444  -0.240198   0.035335     0.02539824
    4   20  -0.585330   0.080446  -0.076692     0.01972673
    5    6  -0.290594   1.680099  -0.060559     0.01570848
    5    7   1.632397  -0.132755  -0.001286     0.01980276
    5    8   0.288847  -0.277614   0.015222    0.002231139
    5    9   0.403524   0.297705   0.109990    0.004227874
    5   10   1.456317   0.347643   0.116934     0.05581557
    5   11   0.117716   0.065723  -0.016076   0.0005041603
    5   12   0.064551  -0.808929   0.035277     0.02052001
    5   13   0.586050   0.038467   0.075892     0.01248311
    5   14   1.165197  -0.184366  -0.000464     0.04968983
    5   15  -1.048025   0.176687  -0.175996     0.04933443
    5   16   0.036059  -0.150689   0.063887    0.001278095
    5   17   0.182163   0.012428   0.083771    0.001921219
    5   18   0.148562   0.136158   0.044153    0.002065914
    5   19   0.714593   0.181043   0.050724     0.02762463
    5   20   0.924272  -0.258748  -0.013539     0.04766573
    6    7  -0.535823  -0.109794  -0.047654    0.000598673
    6    8  -0.591536   0.890326  -0.092419    0.009766695
    6    9  -2.226505  -0.112286  -0.208265     0.05336669
    6   10   0.138666   0.116270   0.045838   0.0006743506
    6   11   0.000787  -0.423935   0.033854    0.003970319
    6   12  -0.032633   0.549440  -0.009749     0.00778971
    6   13  -0.588229  -0.114718  -0.151513     0.01153991
    6   14  -0.264296   0.175502  -0.021786    0.003065032
    6   15   0.273283  -0.064981  -0.114305    0.003413348
    6   16  -0.223147   0.298700  -0.098272    0.005962567
    6   17   0.011934  -0.088787  -0.012448   0.0003453092
    6   18  -0.214588  -0.377780  -0.068463    0.008346657
    6   19  -0.127878  -0.050410  -0.100849    0.001313679
    6   20   0.028536   0.159133  -0.023832    0.001237397
    7    8   0.576065  -0.044443   0.022114     0.00217248
    7    9  -0.234657  -0.834994  -0.000904     0.00651393
    7   10   1.090600   2.001417   0.085310     0.09033906
    7   11  -2.408168   0.671526  -0.302578      0.1266164
    7   12  -0.919230   0.194665  -0.109423     0.02122481
    7   13  -0.247325  -0.089453  -0.090988    0.002185089
    7   14  -0.043784  -0.097246   0.010721   0.0003253898
    7   15  -0.032354   0.415376  -0.045172    0.006169157
    7   16   0.055122  -0.034867   0.047880   0.0002495477
    7   17  -0.078016  -0.106772   0.000664   0.0007034216
    7   18   0.592395  -0.073656   0.126210     0.01532313
    7   19  -0.274698   0.024716   0.130130    0.004018934
    7   20  -0.079601   0.123652  -0.235501    0.003418691
    8    9  -0.091741  -0.251084   0.004242   0.0001544351
    8   10  -2.106998  -0.679540  -0.221210     0.05379191
    8   11  -1.086078   1.767149  -0.184552     0.05839954
    8   12  -0.116685   1.035950  -0.034095     0.01873537
    8   13   0.286411   0.002159   0.192095    0.002582642
    8   14   0.498684  -0.186309   0.057420    0.006256829
    8   15   0.701060   0.003298   0.092261     0.01431451
    8   16   0.114945  -0.249280   0.135915    0.002966829
    8   17  -0.168510   0.504329   0.021130    0.009551077
    8   18   0.439697   0.080154   0.115865     0.00738918
    8   19   0.827361  -0.010005   0.105633     0.02554528
    8   20   0.405334  -0.152021   0.011146    0.007098076
    9   10   0.193795  -0.510405   0.048462    0.002615481
    9   11   0.661194  -0.684043   0.046362     0.01025777
    9   12   0.947568  -0.192700   0.105660     0.01424939
    9   13  -0.409703  -0.209274  -0.082566    0.004271924
    9   14  -0.023599  -0.777460   0.011733     0.01189913
    9   15  -0.201723  -0.064763  -0.018094    0.001196716
    9   16   0.280865  -0.105032  -0.041734    0.002700259
    9   17  -0.359706  -0.162013   0.024762    0.004932206
    9   18   0.167615   0.018780  -0.021924   0.0009401818
    9   19  -0.099489   0.101786  -0.085164   0.0009506155
    9   20  -0.194930  -0.101068   0.074489    0.001918702
   10   11  -1.282727  -0.074231  -0.260054    0.004468912
   10   12  -0.471122  -0.143591   0.130177    0.001648928
   10   13   0.144217   0.080687  -0.006007   0.0002966309
   10   14   0.029195  -0.082515  -0.040534   0.0001019476
   10   15   0.027926  -0.464380   0.038368    0.003870326
   10   16  -0.410424  -0.048623  -0.002145    0.003545103
   10   17   1.171402   0.175847   0.103999     0.03232222
   10   18  -0.276495   0.033781  -0.046105    0.001896816
   10   19   0.703468  -0.210460   0.189001     0.01485936
   10   20  -0.812664  -0.079066  -0.282143     0.02013721
   11   12  -0.457736   0.517051  -0.010553    0.001790244
   11   13  -0.230191   0.081525  -0.060570   0.0005220838
   11   14  -0.043184  -0.033135   0.196753   0.0003482724
   11   15  -0.547394  -0.240601  -0.105803    0.005590377
   11   16  -0.257824   0.083131  -0.060047    0.001397627
   11   17   0.318397  -0.245542   0.031130     0.00329495
   11   18   0.172938  -0.186882  -0.017560    0.001380596
   11   19   0.421544  -0.115955   0.179028    0.005188688
   11   20  -0.653419   0.085311  -0.069460      0.0107056
   12   13   0.053425  -0.161099   0.017379   0.0001308176
   12   14   0.049909  -0.009730   0.030088   1.607078E-05
   12   15   2.177377  -0.074066   0.253916     0.05488357
   12   16  -0.098816   0.135031   0.009856   0.0004045721
   12   17   0.109365  -0.337986   0.042429    0.002112718
   12   18  -0.168859   0.040889   0.006988   0.0005273058
   12   19  -0.173350   0.170768   0.018714    0.001161097
   12   20   0.204957  -0.256660   0.024065    0.002237514
   13   14  -0.534887   0.669918  -0.073975   8.111958E-05
   13   15   0.213098  -0.250382  -0.042195   0.0007597346
   13   16  -1.710300   0.426636  -0.249421     0.03139588
   13   17  -0.816617   0.216670   0.098622    0.008691248
   13   18  -1.359726   0.226096  -0.079102     0.02467956
   13   19   0.387025  -0.029654   0.093847    0.002392097
   13   20  -0.041794  -0.075593  -0.126018   0.0003766301
   14   15   0.064644   0.136411   0.028351    0.000160522
   14   16   0.089271  -0.111447   0.105735   0.0003092742
   14   17   1.608747  -0.058832   0.069086     0.03090283
   14   18   0.322666  -0.092814  -0.041581    0.001469309
   14   19   0.931911  -0.072843   0.085111     0.01311847
   14   20  -1.421326  -0.106330  -0.128141     0.03281982
   15   16  -1.621425   0.021045  -0.091174    0.007892247
   15   17   3.943822   0.065349   0.551477     0.08086717
   15   18   1.296501  -0.010849   0.182744     0.01034266
   15   19  -1.182125  -0.230568  -0.117795     0.01184129
   15   20   0.923547  -0.097968   0.071289    0.008000864
   16   17  -0.064883  -0.365012   0.027137   0.0002910229
   16   18  -0.940483  -0.777474  -0.135820    0.004583627
   16   19  -1.340993  -0.060428   0.021380     0.00918087
   16   20  -0.425651   0.203469  -0.010010    0.001387209
   17   18  -0.191307  -0.519958   0.020576   0.0002872712
   17   19  -0.440638  -0.012206  -0.057392   0.0005903751
   17   20  -0.622015   0.059159  -0.174864    0.001735918
   18   19   3.284042   0.047206   0.373612     0.02243338
   18   20   2.498820   0.155971   0.233987     0.02016416
   19   20  -0.617940  -0.175646  -0.049210   0.0004715202
 --------------------------------------------------------------------------------

                    END OF TRANSITION MOMEMT CALCULATION

 STSman time:  CPU 4.32 s  wall 3.13 s

 
 --------------------------------------------------------------
 
                    Orbital Energies (a.u.)
 --------------------------------------------------------------
 
 Alpha MOs
 -- Occupied --
-14.4406 -14.4399 -10.2902 -10.2877 -10.2730 -10.2630 -10.2626 -10.2620
-10.2608 -10.2603 -10.2602 -10.2590 -10.2582 -10.2579  -1.1477  -0.9610
 -0.9537  -0.8725  -0.8447  -0.8426  -0.8417  -0.7529  -0.7050  -0.6979
 -0.6962  -0.6499  -0.6278  -0.5748  -0.5533  -0.5509  -0.5458  -0.5251
 -0.5169  -0.5076  -0.5059  -0.4901  -0.4718  -0.4454  -0.4388  -0.4387
 -0.4203  -0.4199  -0.4121  -0.3311  -0.3262  -0.3194  -0.3124  -0.2671
 -- Virtual --
 -0.0187   0.0215   0.0248   0.0385   0.0625   0.0710   0.0829   0.1071
  0.1157   0.1199   0.1343   0.1488   0.1559   0.1657   0.1712   0.2016
  0.2072   0.2415   0.2775   0.2832   0.3049   0.3113   0.3153   0.3293
  0.3326   0.3391   0.3465   0.3874   0.3922   0.4023   0.4248   0.4278
  0.4342   0.4415   0.4473   0.4530   0.4604   0.4655   0.4773   0.4802
  0.4824   0.4913   0.4949   0.5051   0.5219   0.5264   0.5406   0.5431
  0.5621   0.5738   0.5852   0.5940   0.6013   0.6179   0.6202   0.6219
  0.6389   0.6505   0.6573   0.6619   0.6680   0.6798   0.6839   0.6891
  0.7052   0.7123   0.7259   0.7279   0.7438   0.7536   0.7600   0.7694
  0.7789   0.7934   0.8067   0.8208   0.8309   0.8369   0.8468   0.8546
  0.8695   0.8812   0.8870   0.9055   0.9166   0.9362   0.9520   0.9556
  1.0036   1.0152   1.0374   1.0655   1.0702   1.0897   1.1092   1.1606
  1.1716   1.2025   1.2245   1.2463   1.2635   1.2661   1.2823   1.2976
  1.3111   1.3218   1.3342   1.3454   1.3880   1.4180   1.4334   1.4832
  1.5135   1.5151   1.5362   1.5438   1.5632   1.5823   1.5959   1.6267
  1.7060   1.7170   1.7495   1.7638   1.7906   1.7960   1.8207   1.8406
  1.8456   1.8489   1.8634   1.8673   1.9029   1.9350   1.9558   1.9597
  1.9661   1.9724   1.9795   1.9874   2.0000   2.0035   2.0088   2.0326
  2.0627   2.0839   2.1456   2.2061   2.2657   2.2716   2.2925   2.3001
  2.3148   2.3263   2.3368   2.3450   2.3586   2.3599   2.3952   2.4066
  2.4240   2.4400   2.4483   2.5306   2.5448   2.5872   2.6275   2.6362
  2.6558   2.6920   2.7134   2.7319   2.7547   2.7722   2.7962   2.8095
  2.8264   2.8648   2.8710   2.9205   2.9249   2.9394   2.9832   3.0564
  3.0623   3.1025   3.1115   3.1414   3.1476   3.1958   3.2615   3.3014
  3.3251   3.3324   3.3361   3.3527   3.3581   3.3659   3.3790   3.4315
  3.4569   3.5080   3.5828   3.6088   3.6208   3.7121   3.7511   3.7648
  3.8161   3.9339   3.9972   4.0170   4.0282   4.0458   4.0684   4.4128
  4.6341   4.8364   4.8426   5.4306  23.2510  23.2917  23.8521  23.8617
 23.8737  23.9170  24.0745  24.0807  24.0960  24.1050  24.1915  24.1996
 35.4343  35.8982
 --------------------------------------------------------------
 
          Ground-State Mulliken Net Atomic Charges

     Atom                 Charge (a.u.)
  ----------------------------------------
      1 C                    -0.200454
      2 C                    -0.186959
      3 C                    -0.161856
      4 C                    -0.011985
      5 C                    -0.174016
      6 C                    -0.199978
      7 H                     0.205142
      8 H                     0.199383
      9 H                     0.234408
     10 H                     0.218658
     11 H                     0.207953
     12 C                    -0.181428
     13 C                    -0.180897
     14 C                    -0.186063
     15 C                    -0.180258
     16 C                    -0.006132
     17 C                    -0.165505
     18 H                     0.211628
     19 H                     0.153497
     20 H                     0.209942
     21 H                     0.215894
     22 H                     0.231148
     23 N                    -0.124235
     24 N                    -0.127887
  ----------------------------------------
  Sum of atomic charges =     0.000000

 -----------------------------------------------------------------
                    Cartesian Multipole Moments
 -----------------------------------------------------------------
    Charge (ESU x 10^10)
                 0.0000
    Dipole Moment (Debye)
         X      -0.0588      Y      -3.1011      Z       0.1015
       Tot       3.1034
    Quadrupole Moments (Debye-Ang)
        XX     -74.4480     XY       0.6404     YY     -87.5152
        XZ      -6.4461     YZ       0.3116     ZZ     -77.2731
    Octopole Moments (Debye-Ang^2)
       XXX      -0.1741    XXY     -17.5657    XYY      -3.1030
       YYY     -27.3561    XXZ      -0.1383    XYZ     -11.1755
       YYZ       0.7505    XZZ      -0.0971    YZZ       0.4079
       ZZZ       0.2925
    Hexadecapole Moments (Debye-Ang^3)
      XXXX   -2329.7467   XXXY       4.7310   XXYY    -505.5955
      XYYY      11.5451   YYYY    -872.9614   XXXZ    -123.6841
      XXYZ       0.4248   XYYZ       5.5600   YYYZ       1.6849
      XXZZ    -468.3639   XYZZ      -0.1663   YYZZ    -184.6843
      XZZZ     -19.2202   YZZZ       0.1052   ZZZZ    -404.2589
 -----------------------------------------------------------------
Archival summary:
1\1\Knecht17\SP\ProcedureUnspecified\BasisUnspecified\21210\ccprak10\WedMay2411:45:392023WedMay2411:45:392023\0\\#,ProcedureUnspecified,BasisUnspecified,\\0,1\N\N,1,1.20022\C,1,1.45097,2,122.763\C,3,1.39297,1,116.718,2,128.795,0\H,4,1.08748,3,119.94,1,-0.341804,0\C,4,1.39273,3,118.506,1,177.38,0\H,6,1.09429,4,119.991,3,-178.625,0\C,6,1.39815,4,120.031,3,1.12607,0\H,8,1.09433,6,119.685,4,-179.729,0\C,8,1.39665,6,120.546,4,0.135894,0\H,10,1.1233,8,120.342,6,-175.533,0\C,10,1.3944,8,120.388,6,-1.35642,0\H,12,1.08373,10,120.259,8,-177.937,0\C,2,1.4522,1,123.807,3,-2.88079,0\C,14,1.38962,2,120.024,1,129.881,0\H,15,1.08493,14,120.3,2,2.12328,0\C,15,1.37879,14,120.787,2,-177.115,0\H,17,1.09958,15,121.636,14,177.698,0\C,17,1.39494,15,118.744,14,0.353477,0\H,19,1.29226,17,113.401,15,-167.545,0\C,19,1.39109,17,121.433,15,-8.40741,0\H,21,1.09586,19,120.327,17,-173.736,0\C,14,1.40215,2,119.859,1,-53.6565,0\H,23,1.08411,14,120.998,2,-1.6383,0\\\@

 Total job time:  132.27s(wall), 1035.59s(cpu) 
 Wed May 24 11:45:39 2023

        *************************************************************
        *                                                           *
        *  Thank you very much for using Q-Chem.  Have a nice day.  *
        *                                                           *
        *************************************************************


